! Touchstone file exported from HFSS 2022.2.0
!        File:           //Mac/Home/Documents/Ansoft/simple_CPW.aedt
!        Generated:      1:01:46 PM  Jan 26, 2023
!        Design:         ET0_SC_100nm
!        Project:        simple_CPW
!        Setup:          Setup1
!        Solution:       Sweep1
!
# GHz S MA R 50.000000
! Terminal data exported
! Port[1] = 1
! Port[2] = 2
5.6                            0.999987292308931 -16.4709338733584 0.00437708048445338 73.5280183051395 0.00437708048445338 73.5280183051393 0.999987561961056 -16.4137050964845 
! Gamma         0                297.09214687381  0                297.054423105263 
! Port Impedance         50               0                50               0                
5.601                          0.999987061739778 -16.4759380999866 0.00441711098301262 73.5224079541425 0.00441711098301261 73.5224079541425 0.999987328961296 -16.4190260991783 
! Gamma         0                297.145198252776 0                297.107469183862 
! Port Impedance         50               0                50               0                
5.602                          0.999986824766428 -16.4812033348658 0.00445782539667399 73.5166615406725 0.00445782539667399 73.5166615406725 0.999987089665733 -16.4243423730719 
! Gamma         0                297.198251445739 0                297.16051532337  
! Port Impedance         50               0                50               0                
5.603                          0.999986579537694 -16.486012667932 0.00449967326016492 73.511027043821  0.00449967326016492 73.511027043821  0.999986841604502 -16.4298723979475 
! Gamma         0                297.251304254781 0                297.213560067572 
! Port Impedance         50               0                50               0                
5.604                          0.999986328710832 -16.4912782668324 0.0045419792833026 73.5051300438285 0.00454197928330262 73.5051300438286 0.999986587960761 -16.435456700892 
! Gamma         0                297.304356574747 0                297.26660585953  
! Port Impedance         50               0                50               0                
5.605                          0.999986071709916 -16.4964735828188 0.00458490420946681 73.4993108578032 0.0045849042094668 73.4993108578031 0.999986327916989 -16.440937855612 
! Gamma         0                297.357409500687 0                297.31965178914  
! Port Impedance         50               0                50               0                
5.606                          0.99998580552056 -16.5016426064781 0.00462896031424927 73.4934518803979 0.00462896031424927 73.4934518803979 0.99998605875869 -16.4465055388026 
! Gamma         0                297.410461796372 0                297.372697844745 
! Port Impedance         50               0                50               0                
5.607                          0.999985532824564 -16.5069787350427 0.00467362397603822 73.4874713891862 0.00467362397603822 73.4874713891862 0.999985782717706 -16.4521316830947 
! Gamma         0                297.463514295423 0                297.425743824745 
! Port Impedance         50               0                50               0                
5.608                          0.999985251571885 -16.51212982383  0.00471927658187121 73.4815262253938 0.0047192765818712 73.4815262253938 0.999985497840344 -16.4578529934182 
! Gamma         0                297.51656687654  0                297.478788349001 
! Port Impedance         50               0                50               0                
5.609                          0.999984962249381 -16.517521930802 0.00476573495025758 73.4754336452998 0.00476573495025758 73.4754336452998 0.999985204800396 -16.4636087675033 
! Gamma         0                297.56961858087  0                297.531834493818 
! Port Impedance         50               0                50               0                
5.61                           0.999984664237765 -16.5231726358192 0.00481306309680298 73.4691506013011 0.00481306309680297 73.4691506013011 0.999984903208046 -16.4694681359338 
! Gamma         0                297.622671401567 0                297.584879693697 
! Port Impedance         50               0                50               0                
5.611                          0.999984357600476 -16.5285674965134 0.00486131557914418 73.4629961911669 0.00486131557914417 73.4629961911669 0.999984592414044 -16.4753043482272 
! Gamma         0                297.675723943836 0                297.637925954181 
! Port Impedance         50               0                50               0                
5.612                          0.999984041396882 -16.5341374006021 0.00491052758662156 73.4567558888456 0.00491052758662155 73.4567558888456 0.999984272178435 -16.4811154232126 
! Gamma         0                297.728777026066 0                297.69097225521  
! Port Impedance         50               0                50               0                
5.613                          0.999983715304178 -16.5398356616875 0.00496077395376306 73.4502692261155 0.00496077395376306 73.4502692261155 0.999983941513966 -16.4872711776062 
! Gamma         0                297.781828502516 0                297.744017228207 
! Port Impedance         50               0                50               0                
5.614                          0.999983380757145 -16.5452748722489 0.00501178814120078 73.4440072416471 0.00501178814120077 73.4440072416471 0.999983602035105 -16.4932132899151 
! Gamma         0                297.834880754023 0                297.797062308193 
! Port Impedance         50               0                50               0                
5.615                          0.999983032798761 -16.5510486768931 0.00506428579522816 73.4374577441856 0.00506428579522817 73.4374577441857 0.99998324933086 -16.4993711527857 
! Gamma         0                297.887933794853 0                297.850108716373 
! Port Impedance         50               0                50               0                
5.616                          0.999982676683648 -16.5567940144476 0.00511741159201995 73.4308880866858 0.00511741159201995 73.4308880866858 0.999982887972125 -16.5055771200679 
! Gamma         0                297.940985747491 0                297.903154890791 
! Port Impedance         50               0                50               0                
5.617                          0.999982307393128 -16.562615297902 0.00517193448585426 73.4242270553391 0.00517193448585426 73.424227055339  0.99998251326453 -16.5118631699762 
! Gamma         0                297.994038168299 0                297.956200377444 
! Port Impedance         50               0                50               0                
5.618                          0.999981927670857 -16.5684062263812 0.00522737072270872 73.417634920522  0.00522737072270874 73.417634920522  0.999982127777015 -16.5180159566856 
! Gamma         0                298.047090705312 0                298.009245198324 
! Port Impedance         50               0                50               0                
5.619                          0.999981534939576 -16.5742759103339 0.00528409200909055 73.410877203817  0.00528409200909056 73.410877203817  0.999981728914984 -16.5243957175917 
! Gamma         0                298.100143084033 0                298.06229077536  
! Port Impedance         50               0                50               0                
5.62                           0.99998112821057 -16.5803234000804 0.00534217589221467 73.4039264598609 0.00534217589221466 73.4039264598608 0.999981315999409 -16.5309571992756 
! Gamma         0                298.153196372522 0                298.115337676115 
! Port Impedance         50               0                50               0                
5.621                          0.999980709534536 -16.5866384829534 0.00540124098581967 73.3968904507974 0.00540124098581967 73.3968904507974 0.999980890902747 -16.5373934220574 
! Gamma         0                298.206248384863 0                298.168382834183 
! Port Impedance         50               0                50               0                
5.622                          0.999980278377606 -16.5925840418692 0.00546143793754664 73.3899159462332 0.00546143793754664 73.3899159462332 0.999980452319202 -16.54405009374  
! Gamma         0                298.259300713243 0                298.221428066116 
! Port Impedance         50               0                50               0                
5.623                          0.999979828250389 -16.5988977388931 0.00552355487242099 73.3826969425766 0.005523554872421 73.3826969425766 0.999979995198787 -16.5507937471814 
! Gamma         0                298.31235315141  0                298.27447473422  
! Port Impedance         50               0                50               0                
5.624                          0.999979366223509 -16.6051044821349 0.00558656454041212 73.3755490167973 0.00558656454041212 73.3755490167972 0.999979525307745 -16.5574735151391 
! Gamma         0                298.365405049233 0                298.327519513243 
! Port Impedance         50               0                50               0                
5.625                          0.999978891862949 -16.611262978778 0.0056505261896822 73.3682840141105 0.00565052618968222 73.3682840141105 0.999979041608881 -16.5644082899641 
! Gamma         0                298.41845783692  0                298.380565585288 
! Port Impedance         50               0                50               0                
5.626                          0.999978393580099 -16.6177685810828 0.00571689340694538 73.3608446084718 0.00571689340694538 73.3608446084718 0.999978535376228 -16.5713051656855 
! Gamma         0                298.471510491796 0                298.433610754932 
! Port Impedance         50               0                50               0                
5.627                          0.999977880124059 -16.624176030044 0.00578448453886181 73.3533502011322 0.00578448453886181 73.3533502011322 0.999978012837954 -16.5783789968786 
! Gamma         0                298.524562096411 0                298.48665751224  
! Port Impedance         50               0                50               0                
5.628                          0.999977347227745 -16.6308862401676 0.00585375783233222 73.3456586690815 0.00585375783233221 73.3456586690814 0.99997747083936 -16.5855083868906 
! Gamma         0                298.577615482858 0                298.539703124878 
! Port Impedance         50               0                50               0                
5.629                          0.999976797371874 -16.6375757681711 0.00592438307187109 73.337882643838  0.0059243830718711 73.3378826438379 0.999976910641685 -16.5927930710651 
! Gamma         0                298.630667449073 0                298.592748196929 
! Port Impedance         50               0                50               0                
5.63                           0.999976226791193 -16.6442708414572 0.00599676903230363 73.3300574141934 0.00599676903230363 73.3300574141934 0.999976329365503 -16.6001322168442 
! Gamma         0                298.683720132804 0                298.645793878535 
! Port Impedance         50               0                50               0                
5.631                          0.99997563875976 -16.6509901567483 0.00607042684362729 73.3221497882137 0.00607042684362729 73.3221497882138 0.999975729554144 -16.6075766153024 
! Gamma         0                298.736772854276 0                298.698839407845 
! Port Impedance         50               0                50               0                
5.632                          0.999975026722889 -16.6580183094478 0.00614608916531522 73.3140443758881 0.00614608916531523 73.3140443758881 0.999975105931276 -16.6150653993893 
! Gamma         0                298.789824945402 0                298.751885697293 
! Port Impedance         50               0                50               0                
5.633                          0.999974384418698 -16.6652157176847 0.00622454246810671 73.3056943487624 0.0062245424681067 73.3056943487623 0.999974451978827 -16.6228273825645 
! Gamma         0                298.842876784321 0                298.804931930589 
! Port Impedance         50               0                50               0                
5.634                          0.99997372409468 -16.6723357192566 0.00630413877055612 73.2973384073145 0.00630413877055613 73.2973384073145 0.99997377827773 -16.630640149438 
! Gamma         0                298.895929601652 0                298.857976431933 
! Port Impedance         50               0                50               0                
5.635                          0.999973033999682 -16.6796883925139 0.00638621486112609 73.2887949331489 0.00638621486112611 73.2887949331489 0.999973075193265 -16.6385470256166 
! Gamma         0                298.948982157578 0                298.911022731579 
! Port Impedance         50               0                50               0                
5.636                          0.99997232296382 -16.6869325944917 0.00646970066613916 73.2801841370143 0.00646970066613917 73.2801841370144 0.999972348693553 -16.6466551125816 
! Gamma         0                299.002033870362 0                298.964067709385 
! Port Impedance         50               0                50               0                
5.637                          0.999971581000246 -16.6942997692393 0.0065556267170078 73.2714925570891 0.00655562671700779 73.2714925570892 0.999971591553605 -16.6547512148223 
! Gamma         0                299.055086993469 0                299.017113688916 
! Port Impedance         50               0                50               0                
5.638                          0.999970810023934 -16.7020505489238 0.00664368884686109 73.262456738507  0.0066436888468611 73.2624567385069 0.999970804257564 -16.6631025943813 
! Gamma         0                299.108138811872 0                299.070158720602 
! Port Impedance         50               0                50               0                
5.639                          0.999970001668859 -16.7098915573793 0.00673477144601047 73.2532879383932 0.00673477144601048 73.2532879383933 0.99996997980233 -16.6715732776008 
! Gamma         0                299.161192696619 0                299.123205124384 
! Port Impedance         50               0                50               0                
5.64                           0.99996916670403 -16.7177246886173 0.00682753198028466 73.2440552232339 0.00682753198028466 73.2440552232339 0.999969126617296 -16.6801293118812 
! Gamma         0                299.214245288593 0                299.176251277795 
! Port Impedance         50               0                50               0                
5.641                          0.999968295364538 -16.7257257722979 0.00692297333567432 73.2346019820538 0.00692297333567434 73.2346019820538 0.999968236435559 -16.6889019107776 
! Gamma         0                299.267297016375 0                299.229296619724 
! Port Impedance         50               0                50               0                
5.642                          0.999967382699712 -16.7338259550606 0.00702155053679384 73.2249694021059 0.00702155053679384 73.224969402106  0.99996730418753 -16.6978714391871 
! Gamma         0                299.32034990178  0                299.282342335454 
! Port Impedance         50               0                50               0                
5.643                          0.999966432865879 -16.7421236316533 0.00712265767277045 73.2151172488507 0.00712265767277046 73.2151172488507 0.99996633312447 -16.7070224363203 
! Gamma         0                299.373402425833 0                299.335388545534 
! Port Impedance         50               0                50               0                
5.644                          0.999965442249745 -16.750524105305 0.0072265692717786 73.2050859744782 0.0072265692717786 73.2050859744782 0.999965319940391 -16.7163658959521 
! Gamma         0                299.426454720922 0                299.388433362903 
! Port Impedance         50               0                50               0                
5.645                          0.999964409913364 -16.7590065738997 0.00733321334284471 73.1949460793159 0.00733321334284472 73.1949460793159 0.999964264084724 -16.7257788080147 
! Gamma         0                299.479506829416 0                299.44147887443  
! Port Impedance         50               0                50               0                
5.646                          0.999963330717563 -16.7678564476274 0.00744301903258392 73.1844706052791 0.00744301903258392 73.184470605279  0.999963159946877 -16.7354249522393 
! Gamma         0                299.53255911705  0                299.494526153    
! Port Impedance         50               0                50               0                
5.647                          0.999962197779467 -16.7769218194959 0.00755656641646247 73.1737535197585 0.00755656641646247 73.1737535197585 0.999962000938866 -16.7452622360672 
! Gamma         0                299.585610788573 0                299.547571329612 
! Port Impedance         50               0                50               0                
5.648                          0.999961014033794 -16.7861290211515 0.00767336254282897 73.1627692640198 0.00767336254282896 73.1627692640198 0.999960789518693 -16.7554182607462 
! Gamma         0                299.638664104939 0                299.600617304777 
! Port Impedance         50               0                50               0                
5.649                          0.999959774263165 -16.7953092454595 0.00779379929726347 73.1516944381536 0.00779379929726346 73.1516944381536 0.999959519991163 -16.7657006093106 
! Gamma         0                299.691716889656 0                299.653662338944 
! Port Impedance         50               0                50               0                
5.65                           0.999958475612201 -16.8048507743407 0.00791790540123271 73.1402944497353 0.00791790540123271 73.1402944497353 0.999958190574438 -16.776189926896 
! Gamma         0                299.744769351196 0                299.706707478551 
! Port Impedance         50               0                50               0                
5.651                          0.999957114812514 -16.8146698044251 0.00804584704223807 73.1286028186919 0.00804584704223807 73.1286028186919 0.999956796820777 -16.7868967293673 
! Gamma         0                299.7978219544   0                299.75975396353  
! Port Impedance         50               0                50               0                
5.652                          0.999955689603369 -16.8245240977135 0.00817769906434673 73.1166684321244 0.00817769906434674 73.1166684321244 0.999955335506486 -16.7979651844821 
! Gamma         0                299.850873753303 0                299.812799641091 
! Port Impedance         50               0                50               0                
5.653                          0.999954189956204 -16.8346664623317 0.00831409854715795 73.1044440773269 0.00831409854715797 73.1044440773269 0.999953798781396 -16.8092271016271 
! Gamma         0                299.903925919688 0                299.865845499348 
! Port Impedance         50               0                50               0                
5.654                          0.999952614032703 -16.8450917718564 0.00845504234937895 73.0918697873199 0.00845504234937893 73.0918697873199 0.999952182640818 -16.8208037256571 
! Gamma         0                299.956979047685 0                299.918891142686 
! Port Impedance         50               0                50               0                
5.655                          0.99995095425721 -16.8558085704776 0.00860091298064414 73.0789236087509 0.00860091298064414 73.0789236087509 0.999950481354901 -16.8327275845665 
! Gamma         0                300.010030548144 0                299.971936872636 
! Port Impedance         50               0                50               0                
5.656                          0.999949210095946 -16.8668354298747 0.00875151711417046 73.0656576173657 0.00875151711417048 73.0656576173657 0.999948692270807 -16.8448687063899 
! Gamma         0                300.063083483149 0                300.02498240467  
! Port Impedance         50               0                50               0                
5.657                          0.999947368974815 -16.8780460924126 0.00890771386885149 73.0520584025014 0.0089077138688515 73.0520584025014 0.999946803587534 -16.8573745820421 
! Gamma         0                300.116136422796 0                300.078027310411 
! Port Impedance         50               0                50               0                
5.658                          0.999945432755796 -16.8893244599251 0.00906904470710229 73.0381705347158 0.0090690447071023 73.0381705347159 0.999944815177887 -16.8702687883024 
! Gamma         0                300.16918849977  0                300.131073677899 
! Port Impedance         50               0                50               0                
5.659                          0.999943383588048 -16.901323992592 0.00923661815154676 73.023692744804  0.00923661815154675 73.023692744804  0.999942711809566 -16.8834872853934 
! Gamma         0                300.22224113503  0                300.184119119647 
! Port Impedance         50               0                50               0                
5.66                           0.999941218907877 -16.9135067894141 0.00941035568438974 73.00885132467   0.00941035568438976 73.00885132467   0.999940489141787 -16.897113592431 
! Gamma         0                300.275294190718 0                300.237164989946 
! Port Impedance         50               0                50               0                
5.661                          0.999938927782629 -16.9262102768073 0.00959070392363972 72.9935058693019 0.0095907039236397 72.9935058693018 0.999938137094764 -16.9110793791263 
! Gamma         0                300.328345756644 0                300.290210723389 
! Port Impedance         50               0                50               0                
5.662                          0.999936514497929 -16.9388381378027 0.00977704118361795 72.9779453796575 0.00977704118361794 72.9779453796575 0.999935655943923 -16.9254037124746 
! Gamma         0                300.381398741019 0                300.343256940044 
! Port Impedance         50               0                50               0                
5.663                          0.999933943837654 -16.952159523281 0.00997163006904711 72.9616736360138 0.0099716300690472 72.9616736360139 0.999933014947358 -16.9402881130756 
! Gamma         0                300.434450513946 0                300.396301194499 
! Port Impedance         50               0                50               0                
5.664                          0.999931229155288 -16.9658073670088 0.0101729286137051 72.9450316694761 0.0101729286137051 72.9450316694761 0.999930224962813 -16.9554220530413 
! Gamma         0                300.487502471966 0                300.449348246529 
! Port Impedance         50               0                50               0                
5.665                          0.999928339757197 -16.9797344851234 0.0103829660682346 72.9277522229657 0.0103829660682346 72.9277522229657 0.999927251877427 -16.9713642299133 
! Gamma         0                300.540555890021 0                300.502393295374 
! Port Impedance         50               0                50               0                
5.666                          0.999925258393396 -16.9944565948491 0.0106022289785473 72.9097574278652 0.0106022289785472 72.909757427865  0.999924083615764 -16.9877428001407 
! Gamma         0                300.593608012064 0                300.555439077876 
! Port Impedance         50               0                50               0                
5.667                          0.999921979086727 -17.0094952017606 0.0108306538282638 72.8911999056811 0.0108306538282638 72.8911999056813 0.999920710027874 -17.0047255229494 
! Gamma         0                300.646660741605 0                300.608485600155 
! Port Impedance         50               0                50               0                
5.668                          0.999918482513432 -17.0253054422369 0.011068874137303 72.8718677578658 0.011068874137303 72.8718677578658 0.999917113418607 -17.0222657635828 
! Gamma         0                300.699712940968 0                300.661530431351 
! Port Impedance         50               0                50               0                
5.669                          0.999914751375088 -17.0413072704707 0.0113175496669822 72.85196881528   0.0113175496669822 72.85196881528   0.999913271614744 -17.0405130660655 
! Gamma         0                300.752765267544 0                300.714576674765 
! Port Impedance         50               0                50               0                
5.67                           0.999910763899928 -17.0581810462364 0.0115772675675856 72.8311778713456 0.0115772675675857 72.8311778713458 0.999909165846411 -17.0594249076235 
! Gamma         0                300.805817732594 0                300.767622344214 
! Port Impedance         50               0                50               0                
5.671                          0.999906482779689 -17.0755422925083 0.0118496722392874 72.8096627742325 0.0118496722392874 72.8096627742326 0.999904759092027 -17.0790231995154 
! Gamma         0                300.858869416652 0                300.820668121162 
! Port Impedance         50               0                50               0                
5.672                          0.999901896116822 -17.0938912464841 0.0121346014894952 72.7871277746636 0.0121346014894952 72.7871277746636 0.999900035763278 -17.0993870007241 
! Gamma         0                300.911922254414 0                300.873714898623 
! Port Impedance         50               0                50               0                
5.673                          0.999896978109284 -17.1124404420621 0.0124328240154697 72.7638588515991 0.0124328240154697 72.763858851599  0.999894967218788 -17.1207187442218 
! Gamma         0                300.964975217913 0                300.926759861478 
! Port Impedance         50               0                50               0                
5.674                          0.9998916742085  -17.1321226025522 0.0127465261507205 72.7394250597151 0.0127465261507205 72.7394250597151 0.999889500025338 -17.1429058291374 
! Gamma         0                301.01802768739  0                300.979805036329 
! Port Impedance         50               0                50               0                
5.675                          0.999885958431305 -17.1525677399117 0.0130760268633666 72.7139427731446 0.0130760268633666 72.7139427731446 0.999883607991308 -17.1660756522658 
! Gamma         0                301.07108021127  0                301.032850371844 
! Port Impedance         50               0                50               0                
5.676                          0.99987980319562 -17.1739465582483 0.0134216656494695 72.6872668765524 0.0134216656494695 72.6872668765524 0.99987725869213 -17.1903243457964 
! Gamma         0                301.124132486476 0                301.085895797972 
! Port Impedance         50               0                50               0                
5.677                          0.999873097739561 -17.1964484194124 0.0137882286611411 72.6592281984596 0.0137882286611411 72.6592281984595 0.99987034768502 -17.2157396285882 
! Gamma         0                301.177184728925 0                301.138941735574 
! Port Impedance         50               0                50               0                
5.678                          0.999865865242076 -17.2198177550236 0.0141728575303406 72.6299485411892 0.0141728575303406 72.6299485411892 0.999862882916384 -17.2423358775053 
! Gamma         0                301.230238173583 0                301.191987046324 
! Port Impedance         50               0                50               0                
5.679                          0.999857964682697 -17.2445280464982 0.0145813268907718 72.5990129517626 0.0145813268907718 72.5990129517626 0.999854732019091 -17.2703983193698 
! Gamma         0                301.283289854413 0                301.24503373213  
! Port Impedance         50               0                50               0                
5.68                           0.999849386476433 -17.2703528707278 0.0150120215230298 72.5666085492311 0.0150120215230298 72.5666085492311 0.999845877102793 -17.2997664033785 
! Gamma         0                301.336342677415 0                301.298079162289 
! Port Impedance         50               0                50               0                
5.681                          0.999839998598442 -17.2977870940942 0.0154695025247405 72.5322842788227 0.0154695025247405 72.5322842788228 0.9998361855058  -17.3307779816795 
! Gamma         0                301.389394852817 0                301.351124249927 
! Port Impedance         50               0                50               0                