! Touchstone file exported from HFSS 2022.2.0
!        File:           //Mac/Home/Documents/Ansoft/simple_CPW.aedt
!        Generated:      1:01:05 PM  Jan 26, 2023
!        Design:         ET0_SC
!        Project:        simple_CPW
!        Setup:          Setup1
!        Solution:       Sweep1
!
# GHz S MA R 50.000000
! Terminal data exported
! Port[1] = 1
! Port[2] = 2
5.6                            0.999569360660153 -16.1904403053781 0.0241756977820401 73.9369406490489 0.0241756977820401 73.9369406490488 0.999597738386335 -15.3537379198174 
! Gamma         0                296.038194438195 0                296.072058084107 
! Port Impedance         50               0                50               0                
5.601                          0.999512021964871 -16.2955131796684 0.0257126997331351 73.8256291397951 0.0257126997331351 73.8256291397951 0.999544849414113 -15.4320122689743 
! Gamma         0                296.09105863944  0                296.124928316003 
! Port Impedance         50               0                50               0                
5.602                          0.999442601139017 -16.4144090248481 0.0274569676634164 73.6996479625671 0.0274569676634164 73.6996479625671 0.999480865587518 -15.5205003269121 
! Gamma         0                296.143922848612 0                296.177798602079 
! Port Impedance         50               0                50               0                
5.603                          0.999357465964675 -16.5501261070758 0.0294534268319524 73.5558148884667 0.0294534268319524 73.5558148884667 0.999402458998265 -15.6214163200377 
! Gamma         0                296.196787089363 0                296.230668850104 
! Port Impedance         50               0                50               0                
5.604                          0.999251512468094 -16.7065968565786 0.0317609855067376 73.3899560993668 0.0317609855067376 73.3899560993668 0.999304955156693 -15.7376637861368 
! Gamma         0                296.249651307622 0                296.283539133059 
! Port Impedance         50               0                50               0                
5.605                          0.999117387721196 -16.8890822047533 0.0344584307469713 73.1964874599009 0.0344584307469713 73.1964874599009 0.999181622579425 -15.8731263769559 
! Gamma         0                296.302515515764 0                296.336409396174 
! Port Impedance         50               0                50               0                
5.606                          0.998944188817696 -17.1047838521199 0.0376535739312372 72.9677644970908 0.0376535739312372 72.9677644970908 0.999022483932095 -16.0331188538371 
! Gamma         0                296.355379762985 0                296.389279660055 
! Port Impedance         50               0                50               0                
5.607                          0.998715192000608 -17.3638292089162 0.0414979536453085 72.6930364218568 0.0414979536453084 72.6930364218568 0.998812241575328 -16.2251124594207 
! Gamma         0                296.408244001455 0                296.442149916776 
! Port Impedance         50               0                50               0                
5.608                          0.998403689750114 -17.6809231827834 0.0462114655678624 72.3566918377275 0.0462114655678625 72.3566918377275 0.998526475981626 -16.4599502171796 
! Gamma         0                296.461108192799 0                296.495020178424 
! Port Impedance         50               0                50               0                
5.609                          0.997964896944708 -18.0782593892817 0.0521257115187646 71.9351662488673 0.0521257115187646 71.9351662488673 0.998124257051071 -16.7539865479336 
! Gamma         0                296.51397241668  0                296.547890421666 
! Port Impedance         50               0                50               0                
5.61                           0.997319040643945 -18.5909723433633 0.0597650265003076 71.3911488041406 0.0597650265003076 71.3911488041405 0.997532713225717 -17.1330884540877 
! Gamma         0                296.566836642462 0                296.600760703502 
! Port Impedance         50               0                50               0                
5.611                          0.996312702721977 -19.278149498896 0.0700096805533173 70.6618767601047 0.0700096805533173 70.6618767601047 0.996611771977283 -17.6406996890016 
! Gamma         0                296.619700854679 0                296.65363096859  
! Port Impedance         50               0                50               0                
5.612                          0.994619548547224 -20.2473404886343 0.084457580316909 69.6330675298168 0.0844575803169089 69.6330675298168 0.995063664936385 -18.3557296727255 
! Gamma         0                296.672565079191 0                296.706501251911 
! Port Impedance         50               0                50               0                
5.613                          0.991442101451478 -21.7166659671662 0.106334506580029 68.0727948860952 0.106334506580028 68.0727948860949 0.992161275431703 -19.4376392288082 
! Gamma         0                296.725429284541 0                296.759371500597 
! Port Impedance         50               0                50               0                
5.614                          0.984389709278926 -24.2038745885945 0.143229157225223 65.4298383724708 0.143229157225223 65.4298383724708 0.985727326289178 -21.2622642907832 
! Gamma         0                296.778293521435 0                296.812241758338 
! Port Impedance         50               0                50               0                
5.615                          0.963454224754333 -29.2886668042356 0.217793629807128 60.0169767366605 0.217793629807128 60.0169767366605 0.966667696061334 -24.95589190548  
! Gamma         0                296.831157755616 0                296.865112036199 
! Port Impedance         50               0                50               0                
5.616                          0.848854576881697 -44.5592240378204 0.429404810879714 43.6064838351837 0.429404810879714 43.6064838351837 0.863185932878621 -35.4751426597567 
! Gamma         0                296.884021988215 0                296.917982300325 
! Port Impedance         50               0                50               0                
5.617                          0.360122544775755 45.8956924059555 0.757103758076014 -35.2836222071012 0.757103758076014 -35.2836222071011 0.455291033445074 16.4329215669322 
! Gamma         0                296.93688620139  0                296.970852561186 
! Port Impedance         50               0                50               0                
5.618                          0.920973347562352 6.92118061088204 0.315910102341601 -81.4552839721953 0.315910102341601 -81.4552839721953 0.928404424667991 1.42203384246222 
! Gamma         0                296.989750423402 0                297.023722812992 
! Port Impedance         50               0                50               0                
5.619                          0.974463159897516 -2.41791852639408 0.181894831535575 -91.431252045231 0.181894831535575 -91.431252045231 0.97683757829806 -5.23456867782011 
! Gamma         0                297.042614661698 0                297.076593094136 
! Port Impedance         50               0                50               0                
5.62                           0.987676677189014 -6.16153474996052 0.126661144209778 -95.4127783279979 0.126661144209778 -95.4127783279979 0.988832316513468 -7.9680163206642 
! Gamma         0                297.095478866869 0                297.129463379943 
! Port Impedance         50               0                50               0                
5.621                          0.992780034179018 -8.15848799843749 0.096983175149845 -97.5341382440866 0.096983175149845 -97.5341382440866 0.993465354622956 -9.43554123820704 
! Gamma         0                297.148343099137 0                297.182333616783 
! Port Impedance         50               0                50               0                
5.622                          0.995263192686309 -9.39711062937901 0.0785294936054547 -98.8492391361666 0.0785294936054548 -98.8492391361666 0.995718747004709 -10.3483444581508 
! Gamma         0                297.201207323167 0                297.235203898133 
! Port Impedance         50               0                50               0                
5.623                          0.996653831801225 -10.2399643709415 0.0659635462995695 -99.7438616320246 0.0659635462995696 -99.7438616320246 0.996979986566029 -10.9704874916363 
! Gamma         0                297.254071540724 0                297.288074172543 
! Port Impedance         50               0                50               0                
5.624                          0.997509917494287 -10.8506157357982 0.0568613472370747 -100.391878558442 0.0568613472370747 -100.391878558442 0.997755913156102 -11.4217391641821 
! Gamma         0                297.306935755304 0                297.340944436766 
! Port Impedance         50               0                50               0                
5.625                          0.998074042921505 -11.3135197416834 0.0499666446047256 -100.883019216267 0.0499666446047256 -100.883019216267 0.998266870113977 -11.764119483218 
! Gamma         0                297.359799970168 0                297.393814687564 
! Port Impedance         50               0                50               0                
5.626                          0.998465351863501 -11.6766429260766 0.0445643245273714 -101.268229404267 0.0445643245273713 -101.268229404267 0.998621051368066 -12.032914815642 
! Gamma         0                297.41266423965  0                297.446684968837 
! Port Impedance         50               0                50               0                
5.627                          0.998747886302893 -11.969232469891 0.0402177016850188 -101.578566375973 0.0402177016850188 -101.578566375973 0.998876597746753 -12.2496654895558 
! Gamma         0                297.46552844221  0                297.499555234219 
! Port Impedance         50               0                50               0                
5.628                          0.998958553983701 -12.2101301404237 0.036645160461577 -101.834035093047 0.0366451604615769 -101.834035093047 0.999067006131536 -12.4282593788796 
! Gamma         0                297.518392660862 0                297.552425487245 
! Port Impedance         50               0                50               0                
5.629                          0.999119838154834 -12.4120191902278 0.0336569911517074 -102.048100354953 0.0336569911517073 -102.048100354953 0.999212675456354 -12.5780503635476 
! Gamma         0                297.571256896292 0                297.605295774112 
! Port Impedance         50               0                50               0                
5.63                           0.999246068968403 -12.5837492511707 0.0311207507370907 -102.230156413993 0.0311207507370908 -102.230156413993 0.999326603073341 -12.70556789728  
! Gamma         0                297.624121105272 0                297.658166008017 
! Port Impedance         50               0                50               0                
5.631                          0.999346730162724 -12.7316823965429 0.0289411843792635 -102.386956446354 0.0289411843792636 -102.386956446354 0.99941738773767 -12.8155075746694 
! Gamma         0                297.67698532366  0                297.711036322782 
! Port Impedance         50               0                50               0                
5.632                          0.999428300855811 -12.860509450676 0.0270480356886877 -102.523479422572 0.0270480356886877 -102.523479422572 0.999490901922885 -12.9113324263683 
! Gamma         0                297.729849576595 0                297.76390657426  
! Port Impedance         50               0                50               0                
5.633                          0.999495329625974 -12.9737647988192 0.0253883546263098 -102.643476664918 0.0253883546263098 -102.643476664918 0.999551266870912 -12.9956522173537 
! Gamma         0                297.782713793892 0                297.816776853845 
! Port Impedance         50               0                50               0                
5.634                          0.999551085925317 -13.0741619454008 0.0239214801094534 -102.749828177262 0.0239214801094534 -102.749828177262 0.999601443820118 -13.070470982684 
! Gamma         0                297.835578010449 0                297.86964710831  
! Port Impedance         50               0                50               0                
5.635                          0.999597968760776 -13.1638187008835 0.0226156716842461 -102.8447816385  0.0226156716842461 -102.8447816385  0.999643604844765 -13.1373529871114 
! Gamma         0                297.888442234801 0                297.922517379048 
! Port Impedance         50               0                50               0                
5.636                          0.999637770759939 -13.2444120961866 0.021445791119328 -102.930116884359 0.021445791119328 -102.930116884359 0.999679372417474 -13.197537068835 
! Gamma         0                297.941306464304 0                297.975387649972 
! Port Impedance         50               0                50               0                
5.637                          0.999671853278068 -13.3172873929791 0.0203916711154999 -103.007261630334 0.0203916711154999 -103.007261630334 0.999709978231563 -13.2520171134975 
! Gamma         0                297.994170691182 0                298.028257899623 
! Port Impedance         50               0                50               0                
5.638                          0.999701265216201 -13.3835362020709 0.0194369449250397 -103.077374345274 0.0194369449250397 -103.077374345274 0.999736370942694 -13.3015996086134 
! Gamma         0                298.047034925735 0                298.081128176191 
! Port Impedance         50               0                50               0                
5.639                          0.999726825331093 -13.4440535745163 0.0185681914719494 -103.14140492084 0.0185681914719493 -103.14140492084 0.99975929079033 -13.3469459298931 
! Gamma         0                298.099899140958 0                298.133998465565 
! Port Impedance         50               0                50               0                
5.64                           0.999749180305041 -13.4995803481291 0.0177743014173127 -103.20013958208 0.0177743014173128 -103.20013958208 0.999779322228368 -13.3886035490851 
! Gamma         0                298.152763372867 0                298.186868720847 
! Port Impedance         50               0                50               0                
5.641                          0.999768846412499 -13.5507349890721 0.0170459999908452 -103.254234632844 0.0170459999908452 -103.254234632844 0.999796931683312 -13.4270294425312 
! Gamma         0                298.205627595813 0                298.239738976374 
! Port Impedance         50               0                50               0                
5.642                          0.999786239868204 -13.598037807014 0.0163754834365867 -103.304242260819 0.0163754834365867 -103.304242260819 0.999812495046289 -13.462608165942 
! Gamma         0                298.258491819372 0                298.292609238036 
! Port Impedance         50               0                50               0                
5.643                          0.999801699242086 -13.6419297377345 0.0157561385877221 -103.350630390061 0.0157561385877221 -103.350630390061 0.999826317974743 -13.495665588124 
! Gamma         0                298.311356045277 0                298.345479521295 
! Port Impedance         50               0                50               0                
5.644                          0.999815502228067 -13.6827868918915 0.0151823240558415 -103.393798138167 0.0151823240558415 -103.393798138167 0.999838651077648 -13.5264796559477 
! Gamma         0                298.364220271272 0                298.398349811284 
! Port Impedance         50               0                50               0                
5.645                          0.999827878328593 -13.7209320430861 0.0146491982889511 -103.434088058393 0.0146491982889511 -103.434088058393 0.999849701396874 -13.5552889780946 
! Gamma         0                298.417084488894 0                298.451220052591 
! Port Impedance         50               0                50               0                
5.646                          0.999839018563592 -13.7566437704327 0.0141525824969488 -103.471795749228 0.0141525824969489 -103.471795749227 0.999859641195835 -13.5822994024935 
! Gamma         0                298.469948713114 0                298.504090338309 
! Port Impedance         50               0                50               0                
5.647                          0.999849082966736 -13.7901637566536 0.013688851120337 -103.507177704351 0.013688851120337 -103.507177704351 0.999868614742066 -13.6076896065955 
! Gamma         0                298.522812971769 0                298.556960612079 
! Port Impedance         50               0                50               0                
5.648                          0.999858206432479 -13.8217027268652 0.013254843221814 -103.540457532564 0.013254843221814 -103.540457532564 0.999876743595994 -13.631615334662 
! Gamma         0                298.57567719288  0                298.609830870859 
! Port Impedance         50               0                50               0                
5.649                          0.999866503315701 -13.851445206343 0.0128477903030853 -103.571831048261 0.0128477903030853 -103.571831048261 0.999884130771737 -13.6542129737555 
! Gamma         0                298.628541407254 0                298.662701156375 
! Port Impedance         50               0                50               0                
5.65                           0.999874071075053 -13.8795535209979 0.0124652573624795 -103.601470518357 0.0124652573624795 -103.601470518357 0.999890864030795 -13.6756025385524 
! Gamma         0                298.681405638146 0                298.715571410112 
! Port Impedance         50               0                50               0                
5.651                          0.999880993187725 -13.906171003949 0.0121050940322651 -103.629528027169 0.0121050940322651 -103.629528027169 0.999897018517145 -13.6958899453944 
! Gamma         0                298.734269881119 0                298.768441694723 
! Port Impedance         50               0                50               0                
5.652                          0.999887341490639 -13.9314246933998 0.0117653942208658 -103.656138399868 0.0117653942208658 -103.656138399868 0.999902658873227 -13.7151691291989 
! Gamma         0                298.787134101742 0                298.821311949653 
! Port Impedance         50               0                50               0                
5.653                          0.99989317807686 -13.9554276108594 0.0114444624287567 -103.681421558633 0.0114444624287567 -103.681421558633 0.999907840953051 -13.7335236162218 
! Gamma         0                298.839998335595 0                298.874182220825 
! Port Impedance         50               0                50               0                
5.654                          0.999898556841886 -13.9782806240193 0.0111407854045282 -103.705484547099 0.0111407854045282 -103.705484547099 0.999912613219539 -13.7510279855928 
! Gamma         0                298.892862558637 0                298.927052493703 
! Port Impedance         50               0                50               0                
5.655                          0.999903524751483 -14.0000740189487 0.0108530082600444 -103.728423181213 0.0108530082600444 -103.728423181213 0.99991701788879 -13.7677489881139 
! Gamma         0                298.945726784086 0                298.979922747753 
! Port Impedance         50               0                50               0                
5.656                          0.999908122883442 -14.0208888854244 0.010579914373465 -103.750323508739 0.0105799143734649 -103.750323508739 0.999921091871249 -13.7837465667893 
! Gamma         0                298.998591038842 0                299.03279303142  
! Port Impedance         50               0                50               0                
5.657                          0.999912387293889 -14.0407982566916 0.0103204081375396 -103.771263012642 0.0103204081375396 -103.771263012642 0.999924867553405 -13.7990746823528 
! Gamma         0                299.051455242489 0                299.085663302859 
! Port Impedance         50               0                50               0                
5.658                          0.999916349736441 -14.0598680570176 0.0100735003334228 -103.791311668145 0.0100735003334228 -103.791311668145 0.99992837344684 -13.8137821057802 
! Gamma         0                299.10431946133  0                299.138533582597 
! Port Impedance         50               0                50               0                
5.659                          0.999920038266468 -14.0781579673525 0.00983829541720549 -103.810532803097 0.00983829541720549 -103.810532803097 0.999931634733268 -13.8279129490522 
! Gamma         0                299.157183718704 0                299.191403838543 
! Port Impedance         50               0                50               0                
5.66                           0.999923477745249 -14.0957221509976 0.00961398076100257 -103.828983877959 0.00961398076100257 -103.828983877959 0.999934673719841 -13.8415072263156 
! Gamma         0                299.210047932009 0                299.244274118493 
! Port Impedance         50               0                50               0                
5.661                          0.999926690267267 -14.1126098641012 0.00939981733362847 -103.846717174816 0.00939981733362846 -103.846717174816 0.999937510223586 -13.8546013785612 
! Gamma         0                299.262912163341 0                299.297144393817 
! Port Impedance         50               0                50               0                
5.662                          0.999929695523383 -14.1288660058881 0.00919513141987582 -103.863780335594 0.00919513141987583 -103.863780335594 0.999940161899537 -13.8672285936113 
! Gamma         0                299.315776382816 0                299.350014660447 
! Port Impedance         50               0                50               0                
5.663                          0.99993251110743 -14.1445315840732 0.00899930765410182 -103.880216878048 0.00899930765410182 -103.880216878048 0.99994264451683 -13.8794191910325 
! Gamma         0                299.368640633526 0                299.402884941234 
! Port Impedance         50               0                50               0                
5.664                          0.999935152779199 -14.1596441316328 0.00881178282048933 -103.896066624839 0.00881178282048934 -103.896066624839 0.999944972195608 -13.8912009070606 
! Gamma         0                299.421504843977 0                299.455755191121 
! Port Impedance         50               0                50               0                
5.665                          0.999937634689755 -14.1742380773704 0.00863204041383272 -103.911366116677 0.00863204041383273 -103.911366116677 0.999947157610341 -13.9025992111382 
! Gamma         0                299.474369076571 0                299.508625479916 
! Port Impedance         50               0                50               0                
5.666                          0.99993996957451 -14.1883450395961 0.00845960594937692 -103.926148896836 0.00845960594937691 -103.926148896836 0.999949212163225 -13.9136374603503 
! Gamma         0                299.527233317952 0                299.561495753017 
! Port Impedance         50               0                50               0                
5.667                          0.999942168920745 -14.2019941206625 0.00829404270478188 -103.940445855258 0.00829404270478188 -103.940445855258 0.999951146135411 -13.924337185717 
! Gamma         0                299.58009753547  0                299.614366015333 
! Port Impedance         50               0                50               0                
5.668                          0.999944243111002 -14.2152121491681 0.00813494811528685 -103.954285461139 0.00813494811528687 -103.954285461139 0.999952968815915 -13.93471822167  
! Gamma         0                299.632961762017 0                299.667236292679 
! Port Impedance         50               0                50               0                
5.669                          0.999946201549113 -14.2280238962012 0.00798195041561791 -103.967693999857 0.00798195041561792 -103.967693999856 0.999954688615266 -13.9447988807821 
! Gamma         0                299.685826003809 0                299.720106587924 
! Port Impedance         50               0                50               0                
5.67                           0.999948052768448 -14.2404522767295 0.00783470583258725 -103.980695779151 0.00783470583258726 -103.980695779151 0.999956313162622 -13.9545960890837 
! Gamma         0                299.738690223455 0                299.772976834575 
! Port Impedance         50               0                50               0                
5.671                          0.9999498045275  -14.2525185157506 0.00769289593857168 -103.993313331068 0.00769289593857168 -103.993313331068 0.999957849391958 -13.964125558762 
! Gamma         0                299.791554475291 0                299.825847127372 
! Port Impedance         50               0                50               0                
5.672                          0.99995146389269 -14.264242294328 0.00755622538954742 -104.005567533146 0.00755622538954744 -104.005567533145 0.999959303616429 -13.9734018262257 
! Gamma         0                299.8444186892   0                299.878717412836 
! Port Impedance         50               0                50               0                
5.673                          0.999953037311599 -14.2756418824398 0.00742441983712453 -104.017477772162 0.00742441983712453 -104.017477772162 0.99996068159429 -13.9824383939734 
! Gamma         0                299.897282922414 0                299.931587652313 
! Port Impedance         50               0                50               0                
5.674                          0.99995453067663 -14.2867342960077 0.00729722413539394 -104.029062110872 0.00729722413539394 -104.029062110872 0.999961988586116 -13.9912478598692 
! Gamma         0                299.950147146607 0                299.984457950105 
! Port Impedance         50               0                50               0                
5.675                          0.999955949381548 -14.2975353580867 0.00717440068768809 -104.040337345312 0.00717440068768808 -104.040337345312 0.999963229405521 -13.9998419294522 
! Gamma         0                300.003011398681 0                300.037328230858 
! Port Impedance         50               0                50               0                
5.676                          0.999957298371778 -14.3080598432002 0.00705572791523781 -104.05131913813 0.0070557279152378 -104.05131913813 0.999964408464577 -14.0082314989218 
! Gamma         0                300.055875610485 0                300.090198493913 
! Port Impedance         50               0                50               0                
5.677                          0.999958582188028 -14.3183215334381 0.00694099899285521 -104.062022124136 0.00694099899285522 -104.062022124136 0.999965529812678 -14.0164267773269 
! Gamma         0                300.108739827249 0                300.143068758752 
! Port Impedance         50               0                50               0                
5.678                          0.999959805005678 -14.3283333075116 0.00683002059721957 -104.072459968886 0.00683002059721957 -104.072459968886 0.999966597172253 -14.0244372838158 
! Gamma         0                300.161604081664 0                300.195939043599 
! Port Impedance         50               0                50               0                
5.679                          0.999960970669749 -14.3381072215838 0.00672261182299697 -104.082645451313 0.00672261182299698 -104.082645451313 0.999967613969911 -14.0322719039325 
! Gamma         0                300.214468310852 0                300.248809299918 
! Port Impedance         50               0                50               0                
5.68                           0.999962082725342 -14.347654568517 0.00661860324578665 -104.092590573192 0.00661860324578665 -104.092590573192 0.999968583363884 -14.0399390245007 
! Gamma         0                300.267332549943 0                300.301679601323 
! Port Impedance         50               0                50               0                
5.681                          0.999963144445798 -14.3569859399635 0.00651783598599763 -104.102306570659 0.00651783598599762 -104.102306570659 0.999969508269203 -14.0474464715448 
! Gamma         0                300.320196764987 0                300.354549853748 
! Port Impedance         50               0                50               0                