! Touchstone file exported from HFSS 2022.2.0
!        File:           //Mac/Home/Documents/Ansoft/CPW_ET2.aedt
!        Generated:      12:08:10 AM  Jan 26, 2023
!        Design:         ET2_SC_2D
!        Project:        CPW_ET2
!        Setup:          Setup1
!        Solution:       Sweep1
!
# GHz S MA R 50.000000
! Terminal data exported
! Port[1] = 1
! Port[2] = 2
5.6                            1.00001912286371 -18.3706082688141 0.00550474866875133 71.6868916506371 0.00550474866875132 71.6868916506371 0.999932073546558 -16.8368666621182 
! Gamma         0.26553847131581 301.519222426277 0.252467761884939 299.562323960608 
! Port Impedance         50               0                50               0                
5.601                          1.00001839828626 -18.3793337399224 0.00559386727149859 71.6805883891378 0.00559386727149859 71.6805883891379 0.999929833651276 -16.844568698004 
! Gamma         0.265625482581466 301.573046231599 0.25255057382011 299.615799403018 
! Port Impedance         50               0                50               0                
5.602                          1.00001763358011 -18.3882349287052 0.00568583545384358 71.6740010411887 0.00568583545384358 71.6740010411885 0.999927509009389 -16.8524223832837 
! Gamma         0.265712500939547 301.626869951368 0.252633398910717 299.669274824549 
! Port Impedance         50               0                50               0                
5.603                          1.00001682587137 -18.397320434166 0.0057807920955484 71.6671176270087 0.00578079209554839 71.6671176270088 0.99992509460809 -16.8604351552207 
! Gamma         0.265799534033546 301.680693689752 0.252716232985876 299.722750222908 
! Port Impedance         50               0                50               0                
5.604                          1.00001597206406 -18.4065993445849 0.00587888521089597 71.659925425861  0.00587888521089597 71.659925425861  0.999922585053287 -16.8686148453556 
! Gamma         0.265886579451792 301.734517439809 0.252799080108694 299.776225603512 
! Port Impedance         50               0                50               0                
5.605                          1.0000150687488  -18.4160813851953 0.00598027276429484 71.6524108522981 0.00598027276429483 71.6524108522982 0.9999199745282  -16.8769698731782 
! Gamma         0.265973629236579 301.788341156521 0.252881934534552 299.829701018339 
! Port Impedance         50               0                50               0                
5.606                          1.00001411232681 -18.4257770429968 0.00608512352198132 71.6445592516224 0.00608512352198131 71.6445592516222 0.999917256751807 -16.8855092346413 
! Gamma         0.266060695786708 301.842164891337 0.252964798002785 299.883176373824 
! Port Impedance         50               0                50               0                
5.607                          1.0000130987298  -18.4356974149578 0.00619361793879438 71.6363550447108 0.00619361793879435 71.6363550447108 0.999914424941381 -16.8942425069922 
! Gamma         0.26614777184072 301.895988637241 0.253047676177483 299.936651752538 
! Port Impedance         50               0                50               0                
5.608                          1.00001202360836 -18.4458544208041 0.00630594929115595 71.6277814833092 0.00630594929115595 71.6277814833092 0.999911471740092 -16.9031799882978 
! Gamma         0.266234860286977 301.949812327515 0.253130565426667 299.990127137164 
! Port Impedance         50               0                50               0                
5.609                          1.00001088214466 -18.456260833639 0.00642232472877772 71.6188206175619 0.00642232472877774 71.618820617562  0.999908389173783 -16.9123327021687 
! Gamma         0.266321954830097 302.00363602944  0.253213462336926 300.043602505624 
! Port Impedance         50               0                50               0                
5.61                           1.00000966911158 -18.4669303447023 0.00654296656224538 71.6094531351161 0.00654296656224537 71.609453135116  0.999905168588897 -16.921712458319 
! Gamma         0.266409061361549 302.057459740847 0.253296369436825 300.097077828935 
! Port Impedance         50               0                50               0                
5.611                          1.00000837870935 -18.4778777166583 0.00666811377518488 71.5996582513899 0.00666811377518489 71.5996582513899 0.999901800568052 -16.9313320008068 
! Gamma         0.266496180643773 302.111283407098 0.253379285391226 300.150553210971 
! Port Impedance         50               0                50               0                
5.612                          1.00000700458917 -18.4891187872989 0.00679802345949583 71.5894135912258 0.00679802345949583 71.5894135912258 0.999898274859986 -16.9412049916998 
! Gamma         0.266583311164252 302.165107103559 0.253462216056914 300.204028522442 
! Port Impedance         50               0                50               0                
5.613                          1.00000553978601 -18.50067067276  0.00693297271747969 71.5786950248612 0.0069329727174797 71.5786950248611 0.999894580269598 -16.9513461668866 
! Gamma         0.266670450828354 302.218930738938 0.253545154729814 300.257503891278 
! Port Impedance         50               0                50               0                
5.614                          1.00000397656972 -18.5125517950078 0.00707326050325396 71.5674764894241 0.00707326050325396 71.5674764894241 0.999890704560298 -16.9617714454592 
! Gamma         0.266757602874755 302.272754418511 0.253628105136015 300.310979217647 
! Port Impedance         50               0                50               0                
5.615                          1.0000023064207  -18.5247820486947 0.00721920996829443 71.5557297699622 0.00721920996829442 71.5557297699623 0.999886634330644 -16.9724980256565 
! Gamma         0.266844765502822 302.326578121148 0.253711063615742 300.364454530941 
! Port Impedance         50               0                50               0                
5.616                          1.00000051987754 -18.5373831164585 0.00737117085005351 71.5434242930197 0.00737117085005351 71.5434242930196 0.999882354881766 -16.9835444945684 
! Gamma         0.266931939053334 302.380401736673 0.253794035123595 300.417929862502 
! Port Impedance         50               0                50               0                
5.617                          0.999998606501053 -18.5503782860919 0.00752952222436928 71.5305269540135 0.0075295222243693 71.5305269540135 0.999877850045659 -16.9949310491491 
! Gamma         0.267019117912355 302.434225314935 0.253877010630437 300.471405142232 
! Port Impedance         50               0                50               0                
5.618                          0.999996554589286 -18.5637929638804 0.00769467581880195 71.5170017427266 0.00769467581880194 71.5170017427266 0.999873102023521 -17.0066795743742 
! Gamma         0.267106313088552 302.488048992349 0.253960001437893 300.524880428456 
! Port Impedance         50               0                50               0                
5.619                          0.999994351118291 -18.5776547546249 0.00786707949512192 71.5028094751442 0.00786707949512193 71.5028094751444 0.999868091155969 -17.0188138975894 
! Gamma         0.267193519299367 302.541872586579 0.254043001979565 300.578355711419 
! Port Impedance         50               0                50               0                
5.62                           0.999991981632706 -18.5919937895723 0.00804722125661846 71.4879073733327 0.00804722125661847 71.4879073733329 0.999862795693125 -17.0313600018144 
! Gamma         0.267280733907531 302.595696214384 0.254126012767507 300.631830991283 
! Port Impedance         50               0                50               0                
5.621                          0.999989429857673 -18.6068429853367 0.00823563394872256 71.4722487355083 0.00823563394872257 71.4722487355086 0.999857191516577 -17.0443462240409 
! Gamma         0.267367961386003 302.649519804374 0.254209033356539 300.685306284949 
! Port Impedance         50               0                50               0                
5.622                          0.999986677535524 -18.622238168343 0.00843290047903041 71.4557825202167 0.00843290047903041 71.4557825202168 0.999851251805598 -17.0578035683813 
! Gamma         0.26745519725597 302.70334340517  0.254292065008002 300.738781527753 
! Port Impedance         50               0                50               0                
5.623                          0.999983704140249 -18.6382188569211 0.00863965984058629 71.4384526181775 0.00863965984058628 71.4384526181774 0.999844946680773 -17.071766040445 
! Gamma         0.26754244644933 302.757166991075 0.254375109015638 300.792256807431 
! Port Impedance         50               0                50               0                
5.624                          0.999980486490575 -18.6548282820109 0.00885661400256734 71.4201974751157 0.00885661400256735 71.4201974751158 0.999838242737752 -17.0862709909508 
! Gamma         0.26762970738449 302.810990554708 0.254458160785331 300.845732051524 
! Port Impedance         50               0                50               0                
5.625                          0.999976998436529 -18.672114192863 0.00908453594585473 71.4009491735127 0.00908453594585473 71.4009491735127 0.99983110254425 -17.1013595237779 
! Gamma         0.267716977988893 302.864814160115 0.254541221017278 300.899207273712 
! Port Impedance         50               0                50               0                
5.626                          0.999973210125604 -18.6901290833447 0.00932427871579799 71.3806328587146 0.00932427871579797 71.3806328587146 0.999823484042685 -17.1170770447803 
! Gamma         0.267804258740682 302.918637712888 0.254624295237098 300.952682536975 
! Port Impedance         50               0                50               0                
5.627                          0.99996908775736 -18.7089313160338 0.00957678630644688 71.3591655398328 0.00957678630644688 71.359165539833  0.99981533980313 -17.1334737684904 
! Gamma         0.267891548923569 302.972461316894 0.254707380511487 301.006157748531 
! Port Impedance         50               0                50               0                
5.628                          0.99996459261609 -18.7285853409513 0.00984310583216863 71.3364552459715 0.00984310583216862 71.3364552459716 0.999806616174894 -17.1506054090087 
! Gamma         0.267978852628051 303.026284824233 0.254790474013741 301.059632978257 
! Port Impedance         50               0                50               0                
5.629                          0.999959680362055 -18.7491631438415 0.0101244021998037 71.3123995046631 0.0101244021998037 71.312399504663  0.999797252277904 -17.1685339236571 
! Gamma         0.268066163770731 303.080108390065 0.254873576523834 301.113108150918 
! Port Impedance         50               0                50               0                
5.63                           0.999954300013082 -18.7707448610083 0.0104219751386601 71.2868840576944 0.0104219751386601 71.2868840576945 0.999787178765735 -17.1873284541473 
! Gamma         0.268153488114739 303.133931861907 0.254956692497011 301.166583376646 
! Port Impedance         50               0                50               0                
5.631                          0.999948392597607 -18.7934201163667 0.0107372790760791 71.2597810017013 0.0107372790760791 71.2597810017011 0.999776316342318 -17.2070663850988 
! Gamma         0.268240821144754 303.187755357066 0.255039815153621 301.220058556688 
! Port Impedance         50               0                50               0                
5.632                          0.999941889875437 -18.8172896381801 0.0110719471610903 71.2309466675643 0.0110719471610903 71.2309466675646 0.999764573978494 -17.2278346047771 
! Gamma         0.268328168868067 303.24157892569  0.255122950173249 301.273533766251 
! Port Impedance         50               0                50               0                
5.633                          0.999934712285775 -18.8424670432133 0.0114278193920427 71.2002190763294 0.0114278193920427 71.2002190763292 0.99975184671704 -17.2497309700709 
! Gamma         0.268415525451679 303.295402441587 0.25520609391465 301.327008899141 
! Port Impedance         50               0                50               0                
5.634                          0.999926766812209 -18.869080607618 0.0118069764548161 71.1674151334557 0.011806976454816 71.1674151334556 0.999738012997442 -17.2728661853807 
! Gamma         0.268502891373236 303.349225894299 0.255289248454455 301.380484082091 
! Port Impedance         50               0                50               0                
5.635                          0.999917944039941 -18.8972760115842 0.0122117804247991 71.1323269029414 0.0122117804247991 71.1323269029409 0.999722931351227 -17.2973658827272 
! Gamma         0.268590269665021 303.403049448243 0.255372414862239 301.433959250046 
! Port Impedance         50               0                50               0                
5.636                          0.999908114777523 -18.9272193856466 0.0126449240137332 71.0947172827282 0.0126449240137332 71.0947172827278 0.999706436273399 -17.3233733353226 
! Gamma         0.268677657704489 303.456872911004 0.25545559059083 301.487434432445 
! Port Impedance         50               0                50               0                
5.637                          0.999897125409529 -18.959100930654 0.0131094904410243 71.0543147544049 0.0131094904410243 71.0543147544049 0.999688333092193 -17.3510525068835 
! Gamma         0.268765056435238 303.510696364251 0.255538778841285 301.54090958526  
! Port Impedance         50               0                50               0                
5.638                          0.999884792348377 -18.9931393508125 0.0136090267751933 71.0108069590873 0.0136090267751933 71.0108069590852 0.99966839145068 -17.3805920975079 
! Gamma         0.268852465675379 303.564519774962 0.255621973197645 301.594384695834 
! Port Impedance         50               0                50               0                
5.639                          0.999870894823534 -19.0295877670559 0.0141476349663105 70.9638325177401 0.0141476349663103 70.9638325177411 0.999646337056722 -17.4122102801899 
! Gamma         0.268939884877501 303.618343297908 0.255705181124378 301.647859879195 
! Port Impedance         50               0                50               0                
5.64                           0.999855165257268 -19.0687403556411 0.0147300842287835 70.9129712613861 0.014730084228784 70.9129712613869 0.999621841054757 -17.4461607439638 
! Gamma         0.269027316671533 303.672166733777 0.25578839877946 301.701334970202 
! Port Impedance         50               0                50               0                
5.641                          0.999837277333247 -19.1109411964116 0.0153619528046241 70.8577316893746 0.0153619528046241 70.8577316893758 0.999594506255098 -17.4827401724903 
! Gamma         0.269114759552001 303.725990190598 0.255871624775319 301.754810105456 
! Port Impedance         50               0                50               0                
5.642                          0.999816829533736 -19.1565953970154 0.0160498066775249 70.7975351370319 0.0160498066775249 70.7975351370323 0.999563849140676 -17.5222977925541 
! Gamma         0.269202212005664 303.779813598528 0.255954862619867 301.808285203102 
! Port Impedance         50               0                50               0                
5.643                          0.999793323685578 -19.2061830330917 0.0168014286312185 70.7316956823879 0.0168014286312186 70.7316956823884 0.999529275958211 -17.5652475280838 
! Gamma         0.269289675108185 303.833636996977 0.256038112330093 301.86176032216  
! Port Impedance         50               0                50               0                
5.644                          0.999766135809138 -19.2602774785699 0.0176261137748141 70.6593939649291 0.0176261137748141 70.6593939649296 0.999490050673433 -17.6120837297931 
! Gamma         0.269377150638333 303.887460427471 0.256121370989211 301.915235426318 
! Port Impedance         50               0                50               0                
5.645                          0.999734476258812 -19.319569376891 0.018535054511538 70.5796431634793 0.0185350545115378 70.579643163479  0.999445251516652 -17.6634016156394 
! Gamma         0.269464637739842 303.941283816353 0.256204638302722 301.968710456143 
! Port Impedance         50               0                50               0                
5.646                          0.999697334062598 -19.3848977660132 0.0195418521157997 70.4912439826657 0.0195418521157997 70.4912439826657 0.999393710868774 -17.7199244837336 
! Gamma         0.269552132476279 303.995107268346 0.256287917493553 302.022185548585 
! Port Impedance         50               0                50               0                
5.647                          0.99965339897746 -19.457292594118 0.0206631995722023 70.3927241908785 0.0206631995722024 70.3927241908787 0.999333931191523 -17.782540016874 
! Gamma         0.26963963961907 304.048930630515 0.256371206887332 302.075660625673 
! Port Impedance         50               0                50               0                
5.648                          0.999600948732983 -19.5380321012413 0.0219198135872577 70.2822563836645 0.0219198135872577 70.2822563836645 0.999263965009383 -17.8523497518898 
! Gamma         0.26972715465776 304.102754048163 0.256454507220601 302.129135701803 
! Port Impedance         50               0                50               0                
5.649                          0.999537684337676 -19.6287223562628 0.0233377232008876 70.1575440070291 0.0233377232008875 70.1575440070288 0.999181240292144 -17.9307376898598 
! Gamma         0.269814682866501 304.156577404847 0.25653781425676 302.18261075971  
! Port Impedance         50               0                50               0                
5.65                           0.999460483015768 -19.7314096872148 0.0249500885292793 70.0156605591209 0.0249500885292793 70.0156605591211 0.999082300749633 -18.0194667883205 
! Gamma         0.269902224815937 304.210400811602 0.256621134920944 302.236085810221 
! Port Impedance         50               0                50               0                
5.651                          0.999365018766097 -19.8487419875352 0.0267998188849577 69.852818089539  0.0267998188849577 69.852818089539  0.998962409940502 -18.120818164571 
! Gamma         0.269989775116687 304.264224150561 0.256704469826562 302.289560885904 
! Port Impedance         50               0                50               0                
5.652                          0.999245163091839 -19.9842078465364 0.0289434377173941 69.6640249135214 0.0289434377173941 69.6640249135214 0.998814930431531 -18.2377964103505 
! Gamma         0.270077332536956 304.318047499097 0.256787809908417 302.343035920729 
! Port Impedance         50               0                50               0                
5.653                          0.999092007020837 -20.1424979242443 0.0314569388484535 69.4425669239474 0.0314569388484534 69.4425669239472 0.998630318706624 -18.3744405187011 
! Gamma         0.270164902383986 304.37187081432  0.256871160777523 302.396510919251 
! Port Impedance         50               0                50               0                
5.654                          0.998892206063874 -20.3300709470589 0.0344449462739375 69.1791953456435 0.0344449462739375 69.1791953456435 0.998394436737589 -18.5363104318934 
! Gamma         0.270252486124369 304.42569416691  0.256954519878237 302.449985954543 
! Port Impedance         50               0                50               0                
5.655                          0.99862505429655 -20.5560721738688 0.0380555760483298 68.8608072070266 0.0380555760483297 68.8608072070268 0.998085589854772 -18.7312758912244 
! Gamma         0.270340077679458 304.479517501146 0.257037891594543 302.503460935933 
! Port Impedance         50               0                50               0                
5.656                          0.99825704079931 -20.8338888309533 0.0425055976326404 68.4682079671979 0.0425055976326404 68.468207967198  0.997669059207795 -18.9708516723732 
! Gamma         0.270427684516714 304.533340831631 0.257121273104824 302.556935977445 
! Port Impedance         50               0                50               0                
5.657                          0.997731079735125 -21.1839249607949 0.048125298245233 67.972113360051  0.0481252982452331 67.9721133600509 0.997086368302359 -19.2725773445814 
! Gamma         0.27051529450774 304.587164042451 0.257204665674952 302.610410957504 
! Port Impedance         50               0                50               0                
5.658                          0.996943527699837 -21.6388737619153 0.0554436658678303 67.3255353638304 0.0554436658678304 67.3255353638304 0.996232562232295 -19.6645326867377 
! Gamma         0.270602921048408 304.640987403938 0.257288066781628 302.663885944273 
! Port Impedance         50               0                50               0                
5.659                          0.995690244907295 -22.254556291013 0.065363344546245 66.448075935217  0.0653633445462449 66.448075935217  0.994903320390732 -20.1946034452275 
! Gamma         0.270690556907685 304.694810664403 0.257371480952117 302.717360953641 
! Port Impedance         50               0                50               0                
5.66                           0.993523312071808 -23.1345846185105 0.0795581548862621 65.1899976002027 0.0795581548862624 65.1899976002028 0.992655660184478 -20.9515045734018 
! Gamma         0.270778205097294 304.748634049387 0.257454900475466 302.7708358841   
! Port Impedance         50               0                50               0                
5.661                          0.98930045285718 -24.4946419873108 0.101506776261791 63.2377200116549 0.101506776261791 63.237720011655  0.988373848752861 -22.1193113013318 
! Gamma         0.270865861941501 304.802457309003 0.257538336940159 302.824310865799 
! Port Impedance         50               0                50               0                
5.662                          0.979374308866747 -26.8652041021411 0.139739322468578 59.8102769784295 0.139739322468578 59.8102769784295 0.978542486399608 -24.1478075122279 
! Gamma         0.270953530917093 304.856280569938 0.257621781225518 302.87778585342  
! Port Impedance         50               0                50               0                
5.663                          0.94681053582532 -31.9370465855826 0.221275118912497 52.3285715062885 0.221275118912498 52.3285715062883 0.947096865123706 -28.444744153911 
! Gamma         0.271041207503411 304.910103810131 0.257705231899906 302.931260765772 
! Port Impedance         50               0                50               0                
5.664                          0.735093243187119 -46.7954973025842 0.463648120153677 26.756431211133  0.463648120153677 26.7564312111331 0.750372996283387 -40.1101272375801 
! Gamma         0.271128896067396 304.963927099201 0.257788697659001 302.984735726416 
! Port Impedance         50               0                50               0                
5.665                          0.663043277346807 12.550713515666  0.509276161545572 -56.2600715071011 0.509276161545572 -56.2600715071011 0.701092534310301 8.56065010624298 
! Gamma         0.271216596602843 305.017750305416 0.257872169900172 303.038210645608 
! Port Impedance         50               0                50               0                
5.666                          0.937410574313687 -3.65389331437563 0.235731416935298 -86.5391474869487 0.235731416935297 -86.5391474869488 0.946104751014589 -4.2121853503068 
! Gamma         0.27130430729908 305.071573527725 0.257955654697294 303.091685569418 
! Port Impedance         50               0                50               0                
5.667                          0.976300031789834 -9.24170701332205 0.145815092054767 -94.8323941803097 0.145815092054768 -94.8323941803097 0.980529763438095 -8.98020028202075 
! Gamma         0.271392028221859 305.125396756601 0.258039150723832 303.145160496516 
! Port Impedance         50               0                50               0                
5.668                          0.98770123926868 -11.7785042614118 0.104871054980319 -98.5083486859871 0.104871054980319 -98.508348685987 0.990391627492055 -11.1617127916081 
! Gamma         0.271479759638059 305.179219984642 0.258122653011966 303.19863541701  
! Port Impedance         50               0                50               0                
5.669                          0.99248076788859 -13.2103681520586 0.081748313443135 -100.566490524896 0.0817483134431349 -100.566490524896 0.994426610682379 -12.3957769135077 
! Gamma         0.271567500628808 305.233043197512 0.258206171691497 303.252110317491 
! Port Impedance         50               0                50               0                
5.67                           0.994922552733429 -14.1275297324261 0.0669455794284582 -101.879075007597 0.066945579428458 -101.879075007597 0.996437625586424 -13.1869781345245 
! Gamma         0.271655254528308 305.286866448138 0.258289695591726 303.305585194257 
! Port Impedance         50               0                50               0                
5.671                          0.996335936697637 -14.7648129340257 0.0566720233193519 -102.788251007335 0.0566720233193519 -102.788251007335 0.99757280159749 -13.737012753431 
! Gamma         0.271743022155915 305.340689643652 0.258373230465368 303.359060097792 
! Port Impedance         50               0                50               0                
5.672                          0.997227472358947 -15.2334058013748 0.0491300337483416 -103.454943931701 0.0491300337483417 -103.454943931701 0.998270846065451 -14.1415826874437 
! Gamma         0.271830796163027 305.394512805739 0.258456777680839 303.412535005594 
! Port Impedance         50               0                50               0                
5.673                          0.997826261859553 -15.592600009902 0.0433601934773378 -103.964647145137 0.0433601934773378 -103.964647145137 0.998727724099722 -14.4517775031852 
! Gamma         0.271918579833846 305.4483359314   0.258540332292098 303.466009830478 
! Port Impedance         50               0                50               0                
5.674                          0.998248140794812 -15.8768571605817 0.0388045645423852 -104.366935559603 0.0388045645423852 -104.366935559603 0.999041289320026 -14.6973104135205 
! Gamma         0.272006379433779 305.502159184181 0.258623898607671 303.519484748794 
! Port Impedance         50               0                50               0                
5.675                          0.998556789874787 -16.1075579080619 0.0351168650684196 -104.692518696997 0.0351168650684197 -104.692518696997 0.999264668396659 -14.8966233596558 
! Gamma         0.272094184617568 305.555982352805 0.25870747767438 303.572959590031 
! Port Impedance         50               0                50               0                
5.676                          0.998789579180222 -16.2986641884242 0.0320709084562034 -104.961428470234 0.0320709084562034 -104.961428470234 0.999428648817851 -15.0617623806166 
! Gamma         0.272182004175545 305.609805464682 0.258791062379097 303.626434440299 
! Port Impedance         50               0                50               0                
5.677                          0.998969617542039 -16.4596771591418 0.029512745161518 -105.187285823474 0.029512745161518 -105.187285823474 0.999552030249903 -15.2009262647727 
! Gamma         0.272269830847227 305.663628622417 0.258874660482599 303.679909274158 
! Port Impedance         50               0                50               0                
5.678                          0.999111822083494 -16.5972855010676 0.0273339824103684 -105.37967385734 0.0273339824103684 -105.37967385734 0.999646795236807 -15.3198875202012 
! Gamma         0.272357671586649 305.717451772653 0.2589582682664  303.733384127003 
! Port Impedance         50               0                50               0                
5.679                          0.999226174190494 -16.7163337766827 0.0254561035799963 -105.545530282725 0.0254561035799962 -105.545530282725 0.999720859930503 -15.4228274701613 
! Gamma         0.27244551675678 305.771274920675 0.259041884660418 303.786858923123 
! Port Impedance         50               0                50               0                
5.68                           0.999319559071695 -16.8204165702857 0.0238208460896536 -105.690000829269 0.0238208460896536 -105.690000829269 0.999779615294733 -15.5128487627161 
! Gamma         0.272533378730844 305.825098085787 0.259125515400005 303.840333772152 
! Port Impedance         50               0                50               0                
5.681                          0.999396851968219 -16.9122568975094 0.0223840693522978 -105.816982474189 0.0223840693522978 -105.816982474189 0.999826829629867 -15.5923019738529 
! Gamma         0.272621252043269 305.878921128859 0.259209149885926 303.893808549022 
! Port Impedance         50               0                50               0                